34
 energy: -53.286902752447 gnorm: 0.000231568635 xtb: 6.7.1pre (5071a88)
C            1.28035338429063        3.51420065453608        0.00435731273092
C            1.21776653780731        0.72731280154415        0.00018670891137
C            1.21852270146811       -0.69348038862177        0.00311146946743
C            1.23018936638555       -3.49556786436840        0.01501592329600
C            2.46505599219441        2.81569888018626        0.00130529532857
C            2.45589264335246        1.41663703199233       -0.00010918579899
C            2.43593813579876       -1.40441155824898        0.00589382767062
C            2.41217971169482       -2.81315975500066        0.01244190444202
C            3.66775244670179        0.67130919696269       -0.00086007709818
C            3.65941204411092       -0.68319062452214        0.00227054670292
C            0.06527006398025        2.84362587883307        0.00300307805722
C            0.00006385151935        1.45407526935981       -0.00087373958625
C           -0.00868645698972       -1.40201946252389        0.00439538321122
C           -0.00171886316450       -2.81179146977645        0.01000251051612
C           -1.25930502880416        0.72692401677773       -0.00557539044957
C           -1.23875354115362       -0.69097997791029       -0.00143701122647
C           -1.23806337472994       -3.51073444483536        0.00991900835769
C           -2.49529024935514        1.36525783968909       -0.01562729277309
C           -2.45477207373850       -1.41859584197722       -0.00426272534326
C           -2.41523690272872       -2.84073650285624        0.00228488865833
C           -3.68351819833821        0.64816930344850       -0.02029250509250
C           -3.67093482722394       -0.72700104228506       -0.01393561989887
H            1.28894731290531        4.59464412885392        0.00748665999460
H            1.22176141985464       -4.57649732368266        0.02030380832550
H            3.41137646921836        3.33725469839227        0.00090794723900
H            3.35256532705565       -3.34629729889504        0.01534288506534
H            4.59999775707773        1.21817564982947       -0.00302768869319
H            4.58440715430115       -1.24261977754061        0.00259892855750
H           -0.83773304560656        3.43283979853401        0.00610673707649
H           -1.21603038373789       -4.59138522346973        0.01564085260881
H           -2.55395581513087        2.44186669614324       -0.02081382641744
H           -3.35507851870045       -3.37471359834452        0.00108769277451
H           -4.62356062072233        1.18098789586742       -0.02839106291192
H           -4.59578441959259       -1.28579758609103       -0.01688624370245
