34
 energy: -51.555451912314 gnorm: 0.000242083471 xtb: 6.7.1pre (5071a88)
C            5.38991411562898        1.09046362065355       -0.01447326991778
C            4.85126122237882       -0.16557709753603       -0.01657198029538
C           -1.17867297461610        3.54235024834180       -0.00654078749867
C           -3.15065278333713        1.99851396150463        0.01016656283723
C           -0.07764384867001        2.71700108408389       -0.00831079851844
C           -2.54707593732703        0.69635911159169        0.00894699251928
C           -3.40804522196958       -0.41489351192217        0.01066640029535
C           -0.01094481266376        1.32330928395498        0.00180819476247
C           -1.16599699886176        0.44161172035404        0.00667743187013
C           -2.93902876542443       -1.71592575261699        0.01019682105608
C           -0.70449204771611       -0.89144554092793        0.00671528742016
C           -1.57679342101171       -1.97015762086920        0.00845228855928
C            1.16655456354572        0.48740792202916        0.00186074249192
C            0.73589614628978       -0.85864172601384        0.00321137996901
C            3.17368268274389        2.02741714757683        0.00709673078903
C            2.57227761183743        0.75380849559123       -0.00012306015757
C            1.61664193469841       -1.93928580361949       -0.00080439722257
C            4.53448180450698        2.19484935681380       -0.00084832185804
C            3.45691525528042       -0.36904265082035       -0.00876483635924
C            2.95986288582368       -1.69224906371984       -0.00848228275587
C           -2.55291529057524        3.21785685871431        0.00405833527309
H            6.46026159990950        1.23441274462868       -0.02152846592546
H            5.49352131671086       -1.03532169599466       -0.02426687576350
H           -0.96712561899443        4.60453502910426       -0.01425567621545
H           -4.23422467520480        1.98805086641759        0.01538821434422
H            0.86185860960388        3.24553346834286       -0.02043506564082
H           -4.47440005277123       -0.23944354910610        0.01199843419381
H           -3.64186905063046       -2.53618295603388        0.01122665382060
H           -1.20435316289194       -2.98326569689206        0.00835377417326
H            2.56927041127063        2.91666224199915        0.02142054182521
H            1.23507101147544       -2.94959848955785        0.00080017168764
H            4.95013714840867        3.19236244242002        0.00419157478952
H            3.67005043903689       -2.50676975229531       -0.01374768947753
H           -3.21659409648430        4.07501530380291        0.00591697492901
