34
 energy: -51.468385245247 gnorm: 0.000793127576 xtb: 6.7.1pre (5071a88)
C            3.73447509098108        4.43160739201357       -0.70105205599360
C            4.23177103151839        3.40982938134114        0.07651543780428
C           -3.43015832839978        0.34604078386235        0.93004182334352
C           -2.50890411414176        1.31255969540656        1.22102642737513
C           -2.75084721394311       -0.71918678464547        0.23748172981944
C           -2.88040769449392       -1.95147141835946       -0.46475955011746
C           -1.20219559276993        0.90190700686489        0.72741806320480
C           -1.40605021125101       -0.35548541390469        0.16772714641553
C            0.00431907009796        1.59597357038686        0.60384611077227
C           -0.65909259607493       -1.32944931722729       -0.55994180289602
C           -1.64475247872374       -2.31682458948493       -0.94824145522345
C            1.20225447157553        1.09282760625654        0.13321615720635
C            1.57346491772787       -0.28285046362912       -0.15140946221225
C            1.71455131553176        3.18437210554111       -0.99966893175859
C            2.18883804168941        2.14959317386793       -0.19225785455204
C            2.84908744268195       -0.75420383999604        0.12778647731128
C            2.47534044351739        4.30564531868099       -1.26917946433499
C            3.49715647369983        2.23874573644040        0.31247346945150
C            4.14994982126526        1.17442032046444        1.02113106465807
C            0.69187265044055       -1.28725562747675       -0.69712700896785
C            3.89386867718072       -0.14727755853368        0.85482935871609
H            4.32436777596757        5.31945634427518       -0.87391935569191
H            5.22221269034731        3.49038775389706        0.50128891625150
H           -4.47737253254359        0.37566068298246        1.17235785316906
H           -2.69692410622283        2.23846079186219        1.73403964924658
H           -3.79164348004782       -2.50660320173225       -0.60899762600833
H           -0.00121695680885        2.64726643663747        0.86918971785770
H           -1.42630599238939       -3.20278562936597       -1.51727768753139
H            0.72303318225889        3.09983438256380       -1.42162202758734
H            3.01379610247318       -1.80236063185477       -0.09289478087073
H            2.07990343321702        5.08695488180873       -1.90068535362855
H            5.02143155536242        1.45572060621244        1.59756788371929
H            1.18894373177590       -2.11823012164274       -1.18505815323890
H            4.60009337850064       -0.84147937351323        1.29615528429159
