34
 energy: -51.495288360249 gnorm: 0.000209546696 xtb: 6.7.1pre (5071a88)
C            5.21328420566466       -0.25336957512125       -0.01116724726821
C            4.27035849853315       -1.26531333752950       -0.00990333620846
C           -0.90408776296722        3.62492957173703        0.00009332431880
C           -2.97252598874065        2.20721078258961        0.00674100298897
C            0.07850384204736        2.68188331588686        0.00020421025971
C           -2.55404844772080        0.83662000643812        0.00596904025094
C           -3.68277375070402       -0.06680733019987        0.00724704553949
C           -0.02853413125578        1.27596992380255        0.00248609581512
C           -1.22540905542657        0.41133028074352        0.00403350986609
C           -3.79731108660633       -1.42000985096318        0.00591565046043
C           -0.75993180883889       -0.95882363882895        0.00309158923604
C           -1.44787580558569       -2.18241341175355        0.00288175908810
C            1.08372211317429        0.44560135870641        0.00159704687575
C            0.65805709925927       -0.91975051969074        0.00133289826405
C            3.48439558258009        1.44181508352491       -0.00236401802395
C            2.52177342141451        0.44946128117590       -0.00173648882318
C            1.76161223014923       -1.75979642404758       -0.00266559420500
C            4.82552088135811        1.08175120197919       -0.00711811998183
C            2.92068810758805       -0.92865614166537       -0.00487709344991
C           -2.79165649682726       -2.41137478991707        0.00375699139178
C           -2.29148266245082        3.38847303506723        0.00387134490358
H            6.26541376873508       -0.49972533230692       -0.01533413554810
H            4.57449728104051       -2.30250103363893       -0.01297040933641
H           -0.59867745079162        4.66295675345923       -0.00268012368255
H           -4.04990599190954        2.32653061763749        0.00943852663690
H            1.09932843174609        3.03994762098377       -0.00230256350493
H           -4.63498365546950        0.45151553850794        0.00923909677958
H           -4.81167565230250       -1.80241552493128        0.00715682975233
H           -0.79921825030722       -3.05035891940548        0.00151082465664
H            3.21435967870605        2.48794793024619        0.00084749425059
H            1.77384352864215       -2.83466486361478       -0.00416631058882
H            5.58210202932871        1.85329085079270       -0.00781576209363
H           -3.13048266299779       -3.43826345047698        0.00311951376051
H           -2.90749003906505        4.28011899081263        0.00456740761958
