34
 energy: -51.497979363380 gnorm: 0.000245294996 xtb: 6.7.1pre (5071a88)
C            4.54187859333801        2.44233958715134       -0.01162030586944
C           -3.78608556300259        1.16158304662961        0.00323301173253
C           -3.70511731985179       -1.34969797802081        0.00510405288730
C           -2.48080223755426        1.56385712826305        0.00476505276369
C           -2.33442292948257       -1.58585784365995        0.00662499890794
C           -1.71557183845444       -2.86963735778435        0.00852600008701
C           -1.28874671474668        0.77905584196163        0.00481884743781
C           -1.26562199164512       -0.62232548790659        0.00523840654494
C           -0.04999337784402        1.42643151108999        0.00394626904999
C           -0.04099212144304       -1.31531455927841        0.00550926642531
C           -0.36028014856241       -2.71905167497661        0.00808451678730
C            1.19674023979213        0.78870434300344        0.00123650568568
C            1.21786465042307       -0.65533701989257        0.00238626606237
C            2.35482993318770        3.01515671958161       -0.00626197291011
C            2.35648790251508        1.62863368494712       -0.00338312038999
C            2.35305123682926       -1.49444308468822        0.00017139943415
C            3.68213100400762        3.50326054287683       -0.01142067812101
C            3.77568930635607        1.24051868895055       -0.00716672841257
C            4.34938192586518       -0.00248703446431       -0.00745973576149
C            3.70009488278406       -1.23845274610819       -0.00400063101089
C           -4.34645927739874       -0.13134015089703        0.00291252860098
H            5.61575267443398        2.47574702517461       -0.01506401323639
H           -4.51821609456630        1.96168744286936        0.00224884429999
H           -4.33439240356723       -2.23265651917330        0.00482368054594
H           -2.31179806402340        2.63460099094008        0.00523125672577
H           -2.25241337635034       -3.80088448893751        0.01012905651381
H           -0.07233565131734        2.50303943376228        0.00477221810325
H            0.34191987742705       -3.53245486362253        0.00979460349358
H            1.50320756991335        3.66904886752517       -0.00534447379672
H            2.10962631296149       -2.54801070342522        0.00153519624388
H            3.94896463893398        4.54522773840655       -0.01461965125428
H            5.43322227454997       -0.02852278494365       -0.01065060249592
H            4.34603276289003       -2.10830267446233       -0.00514060612712
H           -5.42898667639770       -0.16014562089182        0.00104054105271
