34
 energy: -51.459588031718 gnorm: 0.000352382840 xtb: 6.7.1pre (5071a88)
C            4.77372157019705        1.51325394938393       -0.01237227028703
C           -3.59798164127780        2.27867515078021       -0.00180511142995
C           -4.29801997202413       -0.06668701612978        0.00424872298954
C           -2.25307227786392        2.12583480458069       -0.00028640632449
C           -3.06660339983320       -0.83750093485677        0.00519706158693
C           -3.38073647406465       -2.19897739284457        0.00716067885250
C           -1.32746718518339        1.02083330436579        0.00286107922266
C           -1.69140090110076       -0.39723820907542        0.00421780197293
C           -2.42727968315879       -3.19511935349857        0.00953906118816
C           -0.01937616427238        1.55593379806498        0.00383883392690
C           -0.71124371586866       -1.45440974585344        0.00517353890697
C           -1.11915741129254       -2.80831254498698        0.00874853188434
C            1.24902708749411        1.03548943123445        0.00102125513289
C            1.60892816549579       -0.37977752839411       -0.00109605119901
C            3.02231059025863        3.01274271349603       -0.00447957453959
C            2.46524395343301        1.74534668827149       -0.00224608807388
C            3.03815746868585       -0.49003249553154       -0.00600311106161
C            4.43160929111118        2.85209808245325       -0.01077800124778
C            3.56314903573876        0.77715093003774       -0.00715333684707
C            0.72420294723557       -1.40081750619110        0.00162274829991
C           -4.56479716010621        1.25046471435506        0.00089162781622
H            5.76849268770741        1.10831803256433       -0.01702730559528
H           -3.97489522622291        3.29266818504640       -0.00514903311727
H           -5.17683689288236       -0.69992279395537        0.00626527756544
H           -1.74437274242245        3.08235133775227       -0.00275855252683
H           -4.41986899007437       -2.49225100567449        0.00683200524407
H           -2.70898203715629       -4.23651792013750        0.01147943930018
H            0.01644028263606        2.63959053087823        0.00525143292334
H           -0.35637962188127       -3.57248509876535        0.01048377190114
H            2.50823319544966        3.95670949721399       -0.00207082939629
H            3.57068112508707       -1.42466272068372       -0.00849709591425
H            5.13128906353761        3.67034505688976       -0.01411283823198
H            1.18801029748321       -2.38129858565825        0.00056513681339
H           -5.60254526486485        1.55649464486838        0.00043760026479
