34
 energy: -51.448748203194 gnorm: 0.000273391273 xtb: 6.7.1pre (5071a88)
C            4.63355728558775        0.49176672761186       -0.47204214856178
C           -3.67338766914538        1.32121883424361        0.27199255527455
C           -3.55109557911407       -0.79973918903239       -0.96255439395422
C           -2.43613218429649        1.35555905880048        0.78520951956456
C           -2.50497798829138       -1.50103012534071       -0.22307897200714
C           -2.81739863273862       -2.83920132447669       -0.01232008322078
C           -1.27492349526115        0.56458782190186        0.41258357694447
C           -1.28544983535578       -0.81326186984063        0.11946872263346
C           -2.05738874338303       -3.88789116805452        0.48026368082045
C           -0.06596599615207        1.29089534449216        0.45788657461581
C           -0.00399974505950       -1.51113176539253        0.06640338174125
C            0.20067513744013       -2.89911546729168        0.26288833754737
C            1.11211002171689        0.69501392447948        0.11106256645679
C            1.14902888401809       -0.72982607566005       -0.08475097921915
C            3.25654277201349        2.27770367046167        0.00211569722126
C            2.45531827335206        1.17148280771804       -0.03171742446185
C            2.51184760499729       -1.10992408105471       -0.34643749120279
C            4.60380645921564        1.84086958354670       -0.27410520978603
C            3.28679425242603        0.01747592867772       -0.32450679075883
C           -0.67234614050706       -3.91452511343076        0.57177547773208
C           -4.08563515071599        0.41143670050906       -0.75503801347518
H            5.49499541247571       -0.11034709832855       -0.69387855641115
H           -4.40092007327601        2.05323932374680        0.59599202076350
H           -3.99895993592881       -1.41058730196834       -1.73934373395715
H           -2.21212576548775        2.13328290598494        1.50638460150341
H           -3.84621005606589       -3.09526962266292       -0.24413430639288
H           -2.58488956849956       -4.80393918859326        0.71105315487669
H           -0.09702255781169        2.34189948545685        0.70641092327521
H            1.24456840859990       -3.17988951310444        0.28779350114703
H            2.97291845402597        3.29743853613064        0.19208647267973
H            2.85325568999901       -2.10909508937868       -0.55412155411358
H            5.44940224377490        2.50500615524856       -0.31388197449271
H           -0.22682531842324       -4.85891126423013        0.85891474078338
H           -4.92167646412950        0.72170844883049       -1.36837387356542
