32
 energy: -48.967889442371 gnorm: 0.000257108036 xtb: 6.7.1pre (5071a88)
C           -3.68074846417379        0.65381319422891       -0.01640232784323
C           -3.68011865490627       -0.71302392669236       -0.01250022950219
C           -2.47641666534485        1.35672066642306       -0.01398866231014
C           -2.46310293893816       -1.42208411459791       -0.00952595551686
C           -2.45761665613551       -2.83052297164530       -0.00717708559452
C           -1.25212572624006        0.71012165761926       -0.00810143374108
C           -1.23206180035147       -0.71136016217797       -0.00939442798354
C           -1.27420382380130       -3.51453847167097       -0.00644792295965
C            0.06333137689610        2.82294149262582        0.01369673253751
C            0.01111222642369        1.43939050921777       -0.00164936671150
C           -0.01107509650904       -1.43941449300907       -0.01154598899203
C           -0.06335853202170       -2.82302604036337       -0.00950672726988
C            1.27423768799813        3.51441955115703        0.01503895138461
C            1.23207139891414        0.71132784250696       -0.01053732295570
C            1.25210570325622       -0.71008215677049       -0.01725009590848
C            2.45758287466708        2.83047933492324        0.00018947194616
C            2.46310386039658        1.42207680650430       -0.01182990241321
C            2.47647109928306       -1.35658307727002       -0.02842094850482
C            3.68004878784254        0.71313485127326       -0.02425424385587
C            3.68072055768385       -0.65370478350281       -0.03290619843259
H           -4.61195265825972        1.20162026270651       -0.02087053772525
H           -4.60646034700153       -1.26899432650585       -0.01299016071792
H           -2.52807183454084        2.43333632807546       -0.01714533821503
H           -3.40223390338958       -3.35485713959091       -0.00606985598347
H           -1.26549252205389       -4.59490970248723       -0.00415048339744
H           -0.84332094225387        3.40585431715177        0.02553214415355
H            0.84335359643882       -3.40604937879174       -0.01011056545326
H            1.26556735981305        4.59471289300881        0.02728701845801
H            3.40222600020051        3.35481460227459       -0.00120051787799
H            2.52801556658647       -2.43330168961514       -0.03412660271916
H            4.60644096776272        1.26906939645117       -0.02657618946820
H            4.61197150175858       -1.20138127145679       -0.04280222642683
