34
 energy: -51.510891230065 gnorm: 0.000258480758 xtb: 6.7.1pre (5071a88)
C            5.62786916038764        2.23057110813461       -0.01801165579766
C            4.95117451061285        1.05366035651939       -0.01559971950783
C           -3.72118440089157        1.44580610258775        0.00422252980489
C           -3.96296531401638        0.07908241985439        0.00646051721616
C           -2.42951373340123        1.93995082073288        0.00366250219173
C           -2.87678094107824       -0.78542329801954        0.00847961555830
C           -2.80633124545467       -2.22246494963587        0.01168031060254
C           -1.30565984493737        1.09083864854151        0.00488718430168
C           -1.55237697283879       -0.28558874526956        0.00736287678035
C           -0.00284124861453        1.68538577380092        0.00318759809815
C           -0.66297412018522       -1.42653569953166        0.00891434049888
C           -1.49892165491052       -2.59274984771097        0.01205424744257
C            1.22334275573880        1.09112063137194        0.00126603629175
C            1.56313129747104       -0.32442649691721        0.00136516443605
C            2.61455213717773        3.18326181948506       -0.00146224982384
C            2.48717165756786        1.82543125832196       -0.00277889218134
C            2.96728545966311       -0.42318230476871       -0.00412790762925
C            3.80330603856259        3.96023677101324       -0.00445748454810
C            3.55036198699742        0.82916311618576       -0.00743603956379
C            0.71277660512082       -1.42875595078658        0.00595197613598
C            5.10064379506655        3.55383374546064       -0.01173728123267
H            6.70907334448786        2.17300045770609       -0.02502583062635
H            5.54374672901108        0.14554767024588       -0.02071874383926
H           -4.55223493795376        2.13660419278592        0.00312019625698
H           -4.97331108292831       -0.30333785675412        0.00719317564413
H           -2.27287578891936        3.00952287040462        0.00192740873113
H           -3.66186215117892       -2.87331158084833        0.01295379139305
H           -0.02314074952118        2.76880238786835        0.00229479865498
H           -1.11841356953406       -3.59858666808225        0.01409458793823
H            1.70380071863393        3.76794238917277        0.00298085562059
H            3.50669590091281       -1.35384031862977       -0.00588854757651
H            3.63761298937281        5.03102430174633       -0.00055043640798
H            1.19989509662743       -2.39805937224524        0.00680776619176
H            5.84960757295174        4.33648624725950       -0.01307269105525
