34
 energy: -51.593962550183 gnorm: 0.000117954753 xtb: 6.7.1pre (5071a88)
C            4.92677050681805        2.81589279599364       -0.01153927749617
C            4.90133461483590        1.44635153494733       -0.01777814950257
C           -3.66332048533850        0.67589723298873        0.02253257932114
C           -3.67212151913279       -0.70343105595055        0.01744089905438
C           -2.46715160003291        1.36810102418409        0.02060995602438
C           -2.46726145194798       -1.43419658072749        0.01008809662636
C           -2.45792472484551       -2.84074072348211        0.00456215194650
C           -1.23837751104103        0.68426367370235        0.01348946936946
C           -1.23119031684277       -0.73647271163922        0.00794767970725
C           -1.26278750394025       -3.52147741398192       -0.00251496021668
C           -0.01820983828299        1.37405491262612        0.01152301494382
C           -0.00195616492668       -1.44021407390644        0.00014660732422
C           -0.05521466924727       -2.84098383231706       -0.00461614883421
C            1.21087647681064        0.72112235447333        0.00325860418970
C            1.23620495757277       -0.70176778688544       -0.00305597367487
C            2.52179905715269        2.85956384042026        0.00709653511774
C            2.45785719464778        1.45776606548194       -0.00025043649492
C            2.48611371609720       -1.35694626913685       -0.01341384644538
C            3.72454354233430        3.52411977693714        0.00143946369718
C            3.68175910473693        0.74714096358164       -0.01218011185736
C            3.66019609259462       -0.66886836889154       -0.01832238903527
H            5.86640361565308        3.34845695888750       -0.01638224117700
H            5.82153497513269        0.87934086053279       -0.02742628049497
H           -4.59721350190194        1.21952933051677        0.02750394079064
H           -4.60722418643934       -1.24425679169145        0.01893540574219
H           -2.46326371154817        2.44847776110819        0.02446524900652
H           -3.39735545905693       -3.37384722068302        0.00595816060155
H           -1.25853601251236       -4.60220646564280       -0.00654565122613
H           -0.06636650557376        2.45124260478330        0.01601031022652
H            0.85109888582566       -3.42414543961674       -0.00982093187013
H            1.61685842213610        3.44591313948957        0.01729548352581
H            2.52444587778175       -2.43434643687993       -0.01834845052843
H            3.74078400881524        4.60428131122660        0.00690199953836
H            4.60272411366582       -1.19761497044873       -0.02694275789966
