34
 energy: -51.540635897116 gnorm: 0.000239334275 xtb: 6.7.1pre (5071a88)
C            5.76715177306907        0.79460621049601       -0.01599008716301
C            4.91363883388184       -0.27807812680260       -0.01466781616538
C           -1.66789662130428        3.02751005756999        0.00576314984496
C           -2.72212544707885        2.14850653174882        0.00748338554139
C           -0.32306799814909        2.61981392336502        0.00400306905889
C           -2.46366880562131        0.76178525140146        0.00836058045851
C           -3.41220243788639       -0.28460323449568        0.01023884395603
C           -0.01188592365274        1.27320706536348        0.00392081555589
C           -1.11843321542038        0.38281751145639        0.00645723452638
C           -3.00214881295422       -1.59748957935252        0.01096911688960
C           -0.69993603361577       -0.96341695643887        0.00665697879779
C           -1.64767699370318       -1.96232949576315        0.00939456423733
C            1.18932727134278        0.43131369036595        0.00149311755075
C            0.74363599060204       -0.92951143124707        0.00322105864591
C            2.95972312661128        2.10162675665006       -0.00265445565646
C            2.56246283049812        0.72805083987603       -0.00300485299109
C            1.64097307017961       -1.97469754229123        0.00024602310581
C            4.18728140293675        2.71164728533094       -0.00548454661500
C            3.48662899830621       -0.37505488640015       -0.00749870973398
C            2.99232906840177       -1.68540934885123       -0.00547720980853
C            5.46420192580858        2.15303517004727       -0.01118071263229
H            6.82349229911589        0.55135856049898       -0.02174604345539
H            5.40269562613256       -1.24545538807735       -0.01956776477681
H           -1.86955645606368        4.08991832365173        0.00532983545084
H           -3.74038417682019        2.50897637589432        0.00773773315885
H            0.41648788337829        3.40553835176019        0.00277244882826
H           -4.46583770893077       -0.04417862025011        0.01083646445899
H           -3.74665721204579       -2.38141478478166        0.01280183847234
H           -1.37138454290618       -3.00650723517140        0.01038500367317
H            2.12889392245888        2.78438481905498        0.00148826601312
H            1.29754186147523       -2.99841544746428        0.00172535032339
H            4.16219340652139        3.79596346749000       -0.00293845899010
H            3.70006884980384       -2.50207720402532       -0.00867042276107
H            6.29804424562863        2.84137908939087       -0.01240379779908
