34
 energy: -51.551022700900 gnorm: 0.000211042398 xtb: 6.7.1pre (5071a88)
C            5.70575081076724        0.98384462552087       -0.01698313853745
C            4.80343528180938       -0.05531422613578       -0.01304412875593
C           -3.63728220441643        0.68445735786623        0.00627793938667
C           -3.64274750855783       -0.69281937120444        0.00683118243090
C           -2.44210302133994        1.38374326653924        0.00583708779082
C           -2.43364105414880       -1.41761325623831        0.00704070861486
C           -2.41669527024346       -2.82651132771927        0.00841987315157
C           -1.21109256707794        0.71307950701236        0.00557942920452
C           -1.20217401428974       -0.71346606840758        0.00601924540524
C           -1.22643653186375       -3.51612071697638        0.00886872080350
C            0.01031464364022        1.42314393071717        0.00450356469998
C            0.01729857675712       -1.44053767032953        0.00523753092131
C           -0.01725476329709       -2.83643388496748        0.00698820773491
C            1.20274972705830        0.73477151552753        0.00225640477194
C            1.23296512234937       -0.69544872147327        0.00231730847900
C            2.94988378427158        2.51202320433563       -0.00218301164200
C            2.56170777454017        1.20600185213030       -0.00170419801484
C            2.56789233856610       -1.11240520644938       -0.00211746701768
C            4.25821868837852        3.03839333587401       -0.00660697555840
C            3.40918948272612       -0.00274082554118       -0.00537237370858
C            5.45355380958511        2.36573333591177       -0.01330888690011
H            6.75253493823510        0.70672275830746       -0.02382156301712
H            5.22200791139474       -1.05610319803848       -0.01662575242915
H           -4.57239510905480        1.22640624335597        0.00595239433895
H           -4.57598245587601       -1.23712023746869        0.00710961418794
H           -2.44752109480457        2.46441071687000        0.00534647036745
H           -3.35759821264602       -3.35782566890711        0.00916316917659
H           -1.22984755049398       -4.59690254281681        0.01016107659147
H           -0.01686372639001        2.50320443426122        0.00479788939270
H            0.90906680030196       -3.39001256690916        0.00694565601853
H            2.15567126433184        3.24929485489006        0.00140592658528
H            2.91087481497052       -2.13105080347551       -0.00333805781783
H            4.31853294320931        4.11964853180678       -0.00514654816163
H            6.34149637160768        2.98774682213173       -0.01680729849338
