34
 energy: -51.593961285140 gnorm: 0.000182010622 xtb: 6.7.1pre (5071a88)
C            4.92670328185788        2.81581773714666        0.03114658535666
C            4.90123634366718        1.44623018966612        0.03580836466384
C           -3.66331797758243        0.67590708602079        0.00477342935872
C           -3.67205419673190       -0.70338729782097       -0.00544376849930
C           -2.46712525265190        1.36809758886577        0.00870549004352
C           -2.46722495031712       -1.43419020699661       -0.01171217649469
C           -2.45785462571816       -2.84068013740238       -0.02517860511107
C           -1.23835680628381        0.68421453046214        0.00482340278264
C           -1.23116551956678       -0.73646688457738       -0.00458231285900
C           -1.26263997357271       -3.52135620027481       -0.03217776017960
C           -0.01820480050895        1.37408145787627        0.00903443669732
C           -0.00193305766536       -1.44021406937985       -0.00701069722658
C           -0.05511997996163       -2.84092063213669       -0.02293078332315
C            1.21085282718627        0.72110628917828        0.00971060762567
C            1.23623524792676       -0.70179291687092        0.00603525713864
C            2.52174920463206        2.85954984766129        0.01174736973106
C            2.45782800859493        1.45777009408551        0.01651502647609
C            2.48606348710259       -1.35704098070887        0.01863424332095
C            3.72451888703854        3.52407436545810        0.01861998226688
C            3.68172538220679        0.74710618856901        0.02786845582714
C            3.66008618006832       -0.66892936575836        0.03075653056283
H            5.86637108471865        3.34829465568347        0.03700247777997
H            5.82150927183398        0.87933111710894        0.04512486024411
H           -4.59723337492670        1.21950539491937        0.00925775619698
H           -4.60724279040117       -1.24411383679989       -0.00872671860885
H           -2.46318006663046        2.44846376168548        0.01509717260657
H           -3.39725836049466       -3.37373896678778       -0.03108959064832
H           -1.25846615845935       -4.60201633022618       -0.04499193407038
H           -0.06646569935160        2.45121346273027        0.01426091111554
H            0.85133443955399       -3.42391894850327       -0.02982320665864
H            1.61680957386096        3.44588759074947        0.00119412473157
H            2.52448792337059       -2.43443806433731        0.02101427685307
H            3.74063947974936        4.60433029126197        0.01420063332436
H            4.60252296745586       -1.19777681054768        0.04172415897544
