34
 energy: -51.544693446724 gnorm: 0.000191005884 xtb: 6.7.1pre (5071a88)
C            4.55210799819170        3.85433340588007       -0.01611220523480
C            4.76077380283591        2.49959625676459       -0.01542790221543
C           -3.77253549124915        1.40331592566744        0.00613722728320
C           -4.02089072340119        0.03512530112796        0.00784917784228
C           -2.48430670076671        1.90312817888442        0.00502475042455
C           -2.93223172489218       -0.82661222027498        0.00857100397405
C           -2.83295227674684       -2.26678817691032        0.01035140981429
C           -1.35553128128634        1.05327734126926        0.00530822085931
C           -1.62086032436091       -0.31297226612641        0.00716754157648
C           -0.05311351401956        1.63604014848681        0.00328225103403
C           -0.70651935379888       -1.42973737463827        0.00820420939120
C           -1.52144345850304       -2.61577568473328        0.01046418072501
C            1.22711439487248        1.11180470098685        0.00093538596968
C            1.55761663353880       -0.29559487315100        0.00173723288808
C            2.17907650291739        3.45875888354594       -0.00343600951905
C            2.34656667625637        2.06484360813003       -0.00357685991240
C            2.92194493662860       -0.68350950413680       -0.00237904036978
C            3.24483941890214        4.33046449037774       -0.00965716803310
C            3.68460083527262        1.59823538444356       -0.00906643287956
C            3.94576345066600        0.20393782811505       -0.00805679916576
C            0.65898514429255       -1.38688793283903        0.00590606658906
H            5.38394491285102        4.54268937642563       -0.02137391471881
H            5.76439461979808        2.09882721529548       -0.01992436350511
H           -4.60443150051559        2.09302736800624        0.00477230145911
H           -5.03210411311403       -0.34329122541431        0.00789697924540
H           -2.33302968445094        2.97327770929606        0.00363084425851
H           -3.67683333871170       -2.93284214237203        0.01166042151604
H           -0.12038596974675        2.71315781658920        0.00263321928621
H           -1.12373251020303       -3.61470319109723        0.01177955623128
H            1.19801003438085        3.90495139072949        0.00176868658202
H            3.14260131408776       -1.74193221844333       -0.00141579330761
H            3.06018231778762        5.39466339807592       -0.00936915201864
H            4.97192099938240       -0.13245094719495       -0.01170602432834
H            1.14263797310464       -2.35912797076590        0.00642099825856
