34
 energy: -51.593961254738 gnorm: 0.000297182123 xtb: 6.7.1pre (5071a88)
C            4.92693831742647        2.81587117252113        0.00470705340739
C            4.90135446192386        1.44625695663946        0.01173499791826
C           -3.66341785618521        0.67587389880101        0.00475475520723
C           -3.67213859102436       -0.70349518928306        0.00352140490731
C           -2.46721111464883        1.36807965753124        0.00186651969983
C           -2.46722681710919       -1.43421354423790       -0.00012942314996
C           -2.45794282963247       -2.84076809759085       -0.00206314549455
C           -1.23841452671576        0.68428778657115       -0.00157138495734
C           -1.23119989879506       -0.73648102411791       -0.00195915463302
C           -1.26276179716237       -3.52149297507967       -0.00592681807515
C           -0.01824024201559        1.37415683985693       -0.00465322749556
C           -0.00194819441080       -1.44020455742366       -0.00379219573496
C           -0.05515929681326       -2.84097634849856       -0.00651888237888
C            1.21085324762794        0.72119959029198       -0.00510504776962
C            1.23618659812448       -0.70169904645890       -0.00222610823534
C            2.52185535729280        2.85964357693217       -0.01529694649763
C            2.45780893325178        1.45790747363777       -0.00528642256157
C            2.48606947078186       -1.35696311833910        0.00448590804224
C            3.72461435450123        3.52408294791282       -0.01064897948607
C            3.68174297205556        0.74720333781264        0.00571346461966
C            3.66018433085513       -0.66884923978954        0.00990073656671
H            5.86653816634280        3.34838167601891        0.01031595747251
H            5.82144407955008        0.87918534843950        0.02169471076199
H           -4.59731614481369        1.21948907885195        0.00771268501184
H           -4.60721309433567       -1.24440078438132        0.00530358617524
H           -2.46342511168968        2.44846846463920        0.00245603548957
H           -3.39738869991697       -3.37376143941747       -0.00095150915418
H           -1.25850554967331       -4.60223069905011       -0.00810207771358
H           -0.06642143736525        2.45140317394426       -0.00462387926569
H            0.85115777771130       -3.42422114146340       -0.00975907524468
H            1.61691438775887        3.44602856417581       -0.02817004953150
H            2.52435974924748       -2.43435509496376        0.00706806170940
H            3.74097160746629        4.60424882181831       -0.01843863371330
H            4.60276739038958       -1.19765606630106        0.01737308410340
