34
 energy: -51.513863691042 gnorm: 0.000198710106 xtb: 6.7.1pre (5071a88)
C            5.15891771517022        2.59527307091615       -0.01346503014170
C            4.90492693540215        1.24184292668300       -0.01323781989959
C           -3.64959929240686        2.10170737048501       -0.00078087966189
C           -4.19083828205416       -0.31219836233065        0.00776012257739
C           -2.29210871642197        2.12098750839290       -0.00007830325435
C           -2.90717236948724       -0.88564654692872        0.00830327389067
C           -2.74781230009406       -2.29218013943386        0.01125258898158
C           -1.28757468947537        1.08398591598118        0.00349642041333
C           -1.59090895352223       -0.28484822953135        0.00584701005250
C            0.03172913727336        1.61852529500657        0.00367364937762
C           -0.65645385516410       -1.39626315345466        0.00670771556597
C           -1.41911025171964       -2.59986499848341        0.01009273127298
C            1.26647040110682        1.03369082820243        0.00147364896371
C            1.62410641618675       -0.37908968010564       -0.00046637876590
C            2.79632753233688        3.11723683620208       -0.00199254998129
C            2.51306725414926        1.75817772052237       -0.00198452361479
C            3.01632047538495       -0.48755759322122       -0.00579036326393
C            4.11627741742867        3.52561974858232       -0.00770713971031
C            3.57686718002663        0.80735960869004       -0.00717656026009
C            0.72627070912756       -1.43623425216915        0.00305571527312
C           -4.54007259944768        1.00389261811035        0.00349680598303
H            6.17932911230130        2.95095478424708       -0.01873795005870
H            5.71259143230556        0.52436795328739       -0.01819531455040
H           -4.13064311319889        3.07323870497041       -0.00452785319726
H           -4.99917730731103       -1.03490296328534        0.01067500324877
H           -1.86783404343633        3.11877348929039       -0.00332076128248
H           -3.56575969921849       -2.99015949130780        0.01367969078390
H            0.06692696772953        2.70227085057471        0.00447843480415
H           -0.98707959709605       -3.58406571272767        0.01139201107825
H            2.00385557501819        3.85213679042785        0.00266475062704
H            3.56856983849524       -1.40953499543875       -0.00850244914717
H            4.35091677606556        4.58011916380866       -0.00773830574447
H            1.16304587394852       -2.42954460142009        0.00261647002432
H           -5.59414167940303        1.24639953545726        0.00303613961596
