34
 energy: -51.546724348898 gnorm: 0.000131937067 xtb: 6.7.1pre (5071a88)
C            5.04130226312343        2.19283643709201       -0.26543332081478
C            4.93216774508515        0.87339869875705        0.12387045678727
C           -1.61312393361476        2.97649439276258        0.53820291488859
C           -2.68341597992228        2.13709537515596        0.31834726022290
C           -0.27805321863650        2.55749219579978        0.47611049361455
C           -2.45238418559697        0.76823320281653        0.05435702303607
C           -3.40587799177751       -0.25382079031592       -0.13830361143961
C            0.00226869525044        1.23432391095796        0.15853930694980
C           -1.11489917579909        0.37203308111220       -0.00323683854784
C           -3.00039747970263       -1.55351664820152       -0.34191896867934
C           -0.69449655741004       -0.95362932859441       -0.19275460948060
C           -1.64904181047199       -1.93154526611168       -0.36015000022313
C            1.18375993032228        0.42456205321683        0.02984991569977
C            0.76574913733774       -0.94178657621136       -0.09595917624979
C            2.67088465078712        2.25225277473585       -0.57371461396352
C            2.52112737401703        0.93452423574145       -0.11418848899414
C            1.50978215548815       -2.09273708590143       -0.03043352510637
C            3.89849248350453        2.87598802545321       -0.65052996324602
C            3.70412793406744        0.20204465512763        0.17539775795151
C            3.78280669261449       -1.20230410220397        0.48848522553088
C            2.87065833526137       -2.19417093279714        0.32672148624807
H            6.00709680798075        2.67442583787763       -0.29243420105926
H            5.82865750034832        0.32627763190656        0.38064004501747
H           -1.80655112080009        4.01373327061567        0.77615514836398
H           -3.69460513083384        2.51295031111349        0.37186574039285
H            0.50016685352008        3.26744984914783        0.71261081562010
H           -4.45884761025636       -0.01094547007504       -0.11983875162563
H           -3.74913496380765       -2.32009615522565       -0.48531712375700
H           -1.38866048496706       -2.96968004911414       -0.50680097693710
H            1.79468749271216        2.78155324508119       -0.91046445810650
H            0.97877910123507       -3.02633351577421       -0.16051174923034
H            3.96431747885003        3.89330232171995       -1.00749322429483
H            4.77072772903894       -1.51703809244456        0.80479816463056
H            3.22080928305207       -3.20292749322079        0.51353184680085
