34
 energy: -51.506869421519 gnorm: 0.000089563595 xtb: 6.7.1pre (5071a88)
C            5.48509687233028       -0.79803095643239       -0.01350080307597
C            4.27823650954795       -1.47340209537395       -0.00979684375707
C           -1.06560718989148        3.53787375551516        0.00095785112877
C           -3.07183203875727        2.02172062029634        0.00612171198477
C            0.01089801563139        2.68914616808271        0.00047673982427
C           -2.51038173484800        0.69655137461882        0.00697838022930
C           -3.39576509038339       -0.39235466443957        0.00976070724761
C            0.02022621928661        1.29051225442440        0.00216244834267
C           -1.13787808360397        0.40895305173500        0.00481052804402
C           -2.95626877835763       -1.70703095513947        0.01025119106129
C           -0.70046135636192       -0.94292207207459        0.00488357137330
C           -1.60393024450146       -1.99894549558587        0.00774418491182
C            1.15918911454100        0.44507523031500        0.00075474952514
C            0.72920871787643       -0.92068165244752        0.00184023862017
C            3.40036114106208        1.56464547149264       -0.00235597449935
C            2.57126139802077        0.46529092196894       -0.00246309948789
C            1.83063344006839       -1.75911547624597       -0.00133540321711
C            4.79637052807322        1.61424025579529       -0.00606124615431
C            2.98794738460406       -0.96384981716390       -0.00459809463678
C           -2.44777251550141        3.22659551792226        0.00346881557353
C            5.70922073045083        0.57815953819924       -0.01151214498699
H            6.37438251960091       -1.41615945727633       -0.01815314665434
H            4.33984873552983       -2.55665277034161       -0.01121967168449
H           -0.83974475379187        4.59699695565724       -0.00092182024994
H           -4.15564870493760        2.04002625606538        0.00812753470255
H            0.98358129628255        3.16370113816031       -0.00179941805224
H           -4.45826950092813       -0.19389388270035        0.01153467583597
H           -3.68130647481289       -2.50806798747252        0.01270615103352
H           -1.25241488254995       -3.01967074760437        0.00811682802986
H            2.91104493474838        2.53016788921723        0.00109909520503
H            1.82610200541882       -2.83415523499287       -0.00171863615904
H            5.22058705917837        2.61131072991028       -0.00503731794889
H           -3.09730270190447        4.09497539243880        0.00347498251290
H            6.75164742887953        0.87528074347604       -0.01479676462204
