32
 energy: -48.967889058965 gnorm: 0.000306003136 xtb: 6.7.1pre (5071a88)
C           -3.68080051436997        0.65366457857113        0.00653259088679
C           -3.68019284537224       -0.71311792649909       -0.00094348136933
C           -2.47651365624498        1.35657762251714        0.00540656801801
C           -2.46317691065279       -1.42214864780974       -0.00644491755480
C           -2.45760948826534       -2.83058311658567       -0.01320211534815
C           -1.25209752435235        0.71011506308792       -0.00234474518445
C           -1.23218404499711       -0.71135631322147       -0.00521888202874
C           -1.27423552517651       -3.51452060670335       -0.01786820421075
C            0.06332794413670        2.82302962567075       -0.01788715739729
C            0.01107170467043        1.43943005215958       -0.00956217980126
C           -0.01111061704040       -1.43938190614163       -0.00701088314933
C           -0.06334336463464       -2.82299326411024       -0.01442345274805
C            1.27432046803960        3.51452371659319       -0.02489687395739
C            1.23219058770019        0.71138576522460       -0.00894945258893
C            1.25212512410214       -0.71000784502197       -0.00306076094966
C            2.45769215819336        2.83052526467482       -0.02269048584189
C            2.46323124892096        1.42209299763996       -0.01377804327851
C            2.47646811195970       -1.35663697962076        0.00502022295174
C            3.68017768635033        0.71302151811082       -0.00907607168723
C            3.68075824292559       -0.65374561564395        0.00217267648601
H           -4.61197404459158        1.20152908699336        0.01226995846469
H           -4.60660096468947       -1.26905928971568       -0.00214047614051
H           -2.52789846001087        2.43337012513521        0.01084759673987
H           -3.40227570964249       -3.35495176349742       -0.01508777404496
H           -1.26547163919586       -4.59491914388719       -0.02429106314355
H           -0.84330513313991        3.40604418574664       -0.01914497717738
H            0.84344430744988       -3.40577911622762       -0.01837261460414
H            1.26531144122031        4.59491057430053       -0.03233841673055
H            3.40224844592107        3.35489420439504       -0.02841162834572
H            2.52783509209099       -2.43331380680559        0.01387686505210
H            4.60663139903909        1.26887272247326       -0.01360337622611
H            4.61195647965618       -1.20147176180261        0.00746955490947
