32
 energy: -48.918357437558 gnorm: 0.000257891729 xtb: 6.7.1pre (5071a88)
C           -3.78257212703501        1.13760988716177       -0.00244244176788
C           -3.69749218139396       -1.35171574395458        0.00529200101432
C           -2.46341974130352        1.54677626337734       -0.00307341824104
C           -2.33436230826217       -1.57743670489587        0.00514590353257
C           -1.73237159517447       -2.84506644870695        0.00640265260299
C           -1.26933800838538        0.80072460695762        0.00146133507369
C           -1.23357978911626       -0.59189671887093        0.00366075310450
C            0.13320387290416        2.87674031165823        0.00553472481761
C            0.02916736985094        1.49348614043041        0.00175648831209
C           -0.03886679199703       -1.32897337743797        0.00390416206910
C           -0.35881709402868       -2.70032997554790        0.00546417714497
C            1.36471489733835        3.53088196393190        0.00189458540124
C            1.24150171566115        0.74023262708242       -0.00154696555611
C            1.23794039484742       -0.68156620010051        0.00004827721790
C            2.53013527313674        2.81625906028792       -0.00495544338757
C            2.49407922111284        1.40897950047151       -0.00554154860467
C            2.43432415340475       -1.37825132589983       -0.00207183449113
C            3.68920512618713        0.65967575852203       -0.00916407841592
C            3.65614182532328       -0.70878056953330       -0.00710854347062
C           -4.35049042981083       -0.13257661889466        0.00208035679269
H           -4.50262647541799        1.94914344903887       -0.00587025932641
H           -4.32066811037923       -2.23920978032711        0.00695711924245
H           -2.35340966903119        2.62064036181992       -0.00809629835758
H           -2.26893841709992       -3.77650063021921        0.00742316779502
H           -0.74415197700271        3.50300569212354        0.01192638714620
H            0.35005592484373       -3.50864437184192        0.00580746079239
H            1.38487340023309        4.61114138498007        0.00418368726217
H            3.48806437967803        3.31600021927042       -0.00895902810802
H            2.42067086208422       -2.45728202689701        0.00007743055044
H            4.63071879893557        1.18961319652411       -0.01305154160232
H            4.57517439701872       -1.27707143089642       -0.00929406638417
H           -5.43268689712178       -0.16475849961402        0.00215479784110
