34
 energy: -51.522354954114 gnorm: 0.000203641290 xtb: 6.7.1pre (5071a88)
C            4.47558313569454        3.64917311138952       -0.01536668043469
C            4.73580218375473        2.30535226765005       -0.01423300306868
C           -3.71741370440146        0.45482030790236        0.00673317782444
C           -3.60899545208129       -0.94881211151715        0.00815859521829
C           -2.62564296045101        1.29577776293687        0.00650602429584
C           -2.35265140385376       -1.51153723706846        0.00965324970815
C           -1.77860036395375       -2.83954800690610        0.01121172942850
C           -1.32475344575160        0.74830702661037        0.00715826094297
C           -1.24783237922637       -0.63239757193594        0.00902631807109
C           -0.08611748401299        1.42930205028794        0.00500851852445
C           -0.03695290848792       -1.33929723280424        0.00880236835540
C           -0.42122583045228       -2.73603657625380        0.01067033381430
C            1.15835263253371        0.81687160368342        0.00258105750554
C            1.19498153487312       -0.64840188904553        0.00430931395629
C            2.14955378158388        3.09358887433371       -0.00337880793947
C            2.35656278445635        1.70265532004279       -0.00273003602089
C            2.31614533740611       -1.49574457589331        0.00063892333843
C            3.14785190198461        4.04390263006930       -0.00976719965825
C            3.73040667511245        1.30979256538708       -0.00834786650581
C            4.28310050553422       -0.00192908431639       -0.00945528270219
C            3.67038093488720       -1.22410497499706       -0.00576241837898
H            5.27677729856441        4.37214779733354       -0.02073674234251
H            5.76520429451452        1.97661942352414       -0.01862141430211
H           -4.70817239504279        0.88777024587488        0.00462536639483
H           -4.50564455050469       -1.55224578216640        0.00684477080560
H           -2.76463286719592        2.36762340985419        0.00530670340312
H           -2.34412863845263       -3.75382533677042        0.01248199822693
H           -0.18711534652653        2.49959934970030        0.00463721940958
H            0.24989551168993       -3.57654785451709        0.01198723141197
H            1.15631602119350        3.50259562268222        0.00123859824625
H            2.06942548956695       -2.54763150219000        0.00267094846796
H            2.88398870446621        5.09090307862641       -0.01009075309452
H            5.36553825317132       -0.02709267105871       -0.01411018860829
H            4.32482274940727       -2.08746004044862       -0.00765031429356
