34
 energy: -51.593960135338 gnorm: 0.000424525180 xtb: 6.7.1pre (5071a88)
C            4.92683699157176        2.81573463245180       -0.00256900223504
C            4.90143964929341        1.44634460308666       -0.02533166446680
C           -3.66338388200554        0.67585966287003       -0.03039798584021
C           -3.67217152570128       -0.70345148803271       -0.02590108610633
C           -2.46724887534225        1.36817011450223       -0.03016245983255
C           -2.46728466433949       -1.43418158743471       -0.02231994744219
C           -2.45790008306307       -2.84069123487987       -0.01810934548517
C           -1.23846688619817        0.68441499871197       -0.02567895814468
C           -1.23126998831205       -0.73634422135957       -0.02316458629314
C           -1.26277353852163       -3.52141972639446       -0.01420772785152
C           -0.01833023714482        1.37405706840160       -0.02127751054862
C           -0.00200604119589       -1.44008233491377       -0.02202913014487
C           -0.05523750382235       -2.84085815554159       -0.01605571712844
C            1.21084178897154        0.72117636784183       -0.01870758996910
C            1.23619362768770       -0.70165633167151       -0.02615132152566
C            2.52182917462268        2.85925249870314        0.01298749641376
C            2.45793866384266        1.45760066888025       -0.01197317100973
C            2.48616118471728       -1.35678793472034       -0.04160141230757
C            3.72463901455441        3.52383902888799        0.01808350208017
C            3.68190998096130        0.74719875492723       -0.02864279870740
C            3.66025773828035       -0.66873967604871       -0.04624940858071
H            5.86655943015224        3.34843193517342       -0.00007252869738
H            5.82165964018352        0.87950878980097       -0.04011985858889
H           -4.59722155871221        1.21938842338025       -0.03328519900167
H           -4.60725231329512       -1.24432470790230       -0.02523254168817
H           -2.46365955683061        2.44855986781213       -0.03295465438412
H           -3.39743229202620       -3.37381868030081       -0.01706815080464
H           -1.25837534172507       -4.60213759477150       -0.00995806318386
H           -0.06627629589671        2.45131686326901       -0.02250027350100
H            0.85125030104624       -3.42377344448865       -0.01106796506571
H            1.61687787238271        3.44505546175501        0.03116120487438
H            2.52434466025650       -2.43418780066593       -0.05329267902798
H            3.74062489844100        4.60400585582529        0.03807125931063
H            4.60275596716718       -1.19746067715441       -0.06163972511578
