34
 energy: -51.516257442682 gnorm: 0.000202775619 xtb: 6.7.1pre (5071a88)
C            5.50195908531813        2.52912511516031       -0.01760756967835
C            5.00505473975757        1.27219777067780       -0.01636931192265
C           -3.68310123187766        0.48492604265765        0.00544345059416
C           -3.58443046729064       -0.92226841148886        0.00682295083795
C           -2.58803991311423        1.31655716782918        0.00624120914770
C           -2.33615277343063       -1.49589961584428        0.00925115686114
C           -1.78115293250097       -2.83307618978472        0.01066057899371
C           -1.28481636060096        0.76456886476340        0.00749114148954
C           -1.21785487570601       -0.62490517510711        0.00909369560426
C           -0.05442405965938        1.44720670358780        0.00575890489482
C           -0.02799680735821       -1.35796389289525        0.00932499718115
C           -0.42285898238248       -2.74916663636087        0.01082740501910
C            1.17239699438236        0.78650823738285        0.00321957915760
C            1.19200083007496       -0.66447126068748        0.00546404831488
C            2.41716859916988        2.90711130932551       -0.00400431085916
C            2.44794763642038        1.50837962484180       -0.00252639506896
C            2.41605574662203       -1.34434984278463        0.00228808014368
C            3.42610347206057        3.88451532099845       -0.00603867621966
C            3.65990257099717        0.74465490908743       -0.00727779526574
C            3.59955496187780       -0.65407045419429       -0.00443479696712
C            4.78306144913291        3.75411035835333       -0.01109165173243
H            6.58073292334359        2.62603282129567       -0.02412519612153
H            5.75224680317678        0.48595816782060       -0.02246665805372
H           -4.67155154104754        0.92355528098547        0.00379338531508
H           -4.48743876610434       -1.51690082548247        0.00574525199999
H           -2.71962158848959        2.38952025212517        0.00561226877261
H           -2.36274247586008       -3.73723759896495        0.01165324501952
H           -0.11815882109800        2.52372874992232        0.00567149045388
H            0.25502366522633       -3.58392710529606        0.01213300151255
H            1.43714561755817        3.35516343657677       -0.00185092012011
H            2.41397736535086       -2.42300169887653        0.00427139134222
H            3.05164722009960        4.90225965894306       -0.00353202723529
H            4.52704055121042       -1.20939585109340       -0.00800958901158
H            5.37689136474142        4.65772476652623       -0.01143233439925
