34
 energy: -51.495750912269 gnorm: 0.000124777628 xtb: 6.7.1pre (5071a88)
C            5.13198152629814        2.13019059946067        0.18039533449816
C            4.97178272136787        0.82733871321303       -0.22332372408760
C           -1.25529226676794        3.38440298006177       -0.52817295914701
C           -3.16908015365657        1.79638481767356        0.00722164762715
C           -0.06693867186021        2.68493100433454       -0.45889193501742
C           -2.47662460647011        0.60329255447228        0.16377654982901
C           -2.93219188175034       -0.72977459738262        0.38080899376221
C            0.07118072338431        1.33887571864594       -0.08520790227625
C           -1.05214902816177        0.50744693294801        0.11770599033494
C           -0.66773447767011       -0.81979359740258        0.28009039366468
C           -1.85332720314826       -1.58917335770957        0.43874220395356
C            1.22119895362905        0.48811231780908        0.00831597920344
C            0.75354052839050       -0.88529514699914        0.13574335243361
C            2.78297933599560        2.25021976989176        0.61370713003861
C            2.57049649864101        0.94471119143128        0.12549122730852
C            1.47421995565759       -2.05493414047893        0.03045202066220
C            4.02503718428101        2.83585686308613        0.64445761533164
C            3.72219420294898        0.17889619408527       -0.22040962363054
C            3.75348853758642       -1.21252162132350       -0.54035716656050
C            2.81199568564681       -2.18613467893773       -0.36339100849904
C           -2.59275463291346        3.02084238276747       -0.28543001626880
H            6.10891185709042        2.58966849720062        0.16990562219517
H            5.83925708894580        0.26018028538207       -0.53089359756195
H           -1.14346588965850        4.42097853998920       -0.82957596239713
H           -4.24864254109863        1.76885465311256        0.09828167651478
H            0.82327949852022        3.22330181204901       -0.75796718590087
H           -3.96541155620205       -1.01382201687618        0.46991237444424
H           -1.90847995130199       -2.65406856040502        0.58078648590556
H            1.94071522679650        2.78871678169926        1.01829310599523
H            0.91510821000776       -2.97245965048741        0.16274879427964
H            4.14187549060706        3.83774683979504        1.03059074168169
H            4.72170883496188       -1.55744511018858       -0.88510995551256
H            3.13755324387739       -3.20095266349796       -0.56123875669344
H           -3.29244244397463        3.84292569258145       -0.38745744611038
