18
 energy: -27.005238121607 gnorm: 0.000085397687 xtb: 6.7.1pre (5071a88)
C            0.00048519174172        1.18483587398708        0.00000000130176
C           -1.21670203661100        0.34753557726778        0.00000000194859
C           -0.78005639704957       -0.99633279603366       -0.00000000817476
C            0.69681947852418       -0.95825764667431       -0.00000000490427
C            1.13215610316414        0.36786347508100       -0.00000000315393
C           -2.30350008190631        1.19280104993052        0.00000001603383
C           -1.80691348865439        2.52184112075346       -0.00000000472338
C           -0.41411727497786        2.52228649762417        0.00000000423756
C            1.14752471849856       -2.28398247547383       -0.00000000392637
C            0.02048011208405       -3.10229658048545        0.00000001329847
C           -1.16246159433203       -2.31896991008525       -0.00000002139901
H            2.15645579786684        0.70067879632513       -0.00000000185915
H           -3.34315784194520        0.92161044354108        0.00000001867167
H           -2.42602097002501        3.40164139877198       -0.00000000888080
H            0.21507453140406        3.39333980807701        0.00000000046905
H            2.16853965944274       -2.61884654816009        0.00000000276518
H            0.03673579691982       -4.17797549747779        0.00000002283588
H           -2.16296170414474       -2.71067258696884       -0.00000002454031
