18
 energy: -26.995392845664 gnorm: 0.088745665388 xtb: 6.7.1pre (5071a88)
C            0.00000000000000        1.20792000000000        0.00000000000000
C           -1.14880000000000        0.37327000000000        0.00000000000000
C           -0.71000000000000       -0.97723000000000        0.00000000000000
C            0.71000000000000       -0.97723000000000        0.00000000000000
C            1.14880000000000        0.37327000000000        0.00000000000000
C           -2.29761000000000        1.20792000000000        0.00000000000000
C           -1.85880000000000        2.55842000000000        0.00000000000000
C           -0.43880000000000        2.55842000000000        0.00000000000000
C            1.14880000000000       -2.32773000000000        0.00000000000000
C            0.00000000000000       -3.16239000000000        0.00000000000000
C           -1.14880000000000       -2.32773000000000        0.00000000000000
H            2.17595000000000        0.70701000000000        0.00000000000000
H           -3.32475000000000        0.87419000000000        0.00000000000000
H           -2.49361000000000        3.43216000000000        0.00000000000000
H            0.19600000000000        3.43216000000000        0.00000000000000
H            2.17595000000000       -2.66147000000000        0.00000000000000
H            0.00000000000000       -4.24239000000000        0.00000000000000
H           -2.17595000000000       -2.66147000000000        0.00000000000000
18
 energy: -27.003430267153 gnorm: 0.043010075256 xtb: 6.7.1pre (5071a88)
C            0.00303143912254        1.19049343935548       -0.00000000000084
C           -1.18169114449439        0.35834926032303        0.00000000000288
C           -0.74493761503793       -0.98134459565318       -0.00000000000233
C            0.70385593069912       -0.96483634966185       -0.00000000000015
C            1.14643549348681        0.37106586686901        0.00000000000054
C           -2.30086208799939        1.19316181722457       -0.00000000000117
C           -1.82936332355554        2.52448186189882        0.00000000000008
C           -0.42415508095593        2.52853643506732        0.00000000000034
C            1.14717903615075       -2.29830778623312        0.00000000000010
C            0.00357332320755       -3.11411396633953        0.00000000000018
C           -1.15958186977908       -2.31462260939258        0.00000000000067
H            2.17107934038538        0.70551724837304       -0.00000000000012
H           -3.33019063240143        0.88127017819775        0.00000000000039
H           -2.45408959789123        3.40026690192543       -0.00000000000017
H            0.20223232723484        3.40367707399581       -0.00000000000013
H            2.16865159724721       -2.63747659976450       -0.00000000000001
H            0.01199553785151       -4.18988475978600        0.00000000000001
H           -2.17478267327080       -2.66913341639951       -0.00000000000027
18
 energy: -27.005075935980 gnorm: 0.010884845157 xtb: 6.7.1pre (5071a88)
C            0.00267071155649        1.18463492131596        0.00000000001064
C           -1.20758420041054        0.34808842778228       -0.00000000002154
C           -0.77254386094276       -0.99158966953496        0.00000000001669
C            0.69806495934139       -0.95634402810953        0.00000000000601
C            1.13723197957207        0.36974422870760       -0.00000000000928
C           -2.30081029393013        1.18713497273366        0.00000000001541
C           -1.80809022717279        2.51108425570570       -0.00000000000230
C           -0.41365787820906        2.52047949815344       -0.00000000000342
C            1.14551764899871       -2.28219107710806       -0.00000000000484
C            0.01244459644587       -3.09509203546700        0.00000000000204
C           -1.16405745767527       -2.31350006677491       -0.00000000001284
H            2.16062822969094        0.70297317801571        0.00000000000159
H           -3.33469731264311        0.89701696940640        0.00000000000397
H           -2.42714333799493        3.39036265850311       -0.00000000000274
H            0.20842927550705        3.39636942050450       -0.00000000000149
H            2.16359214779628       -2.62348860072492        0.00000000000398
H            0.02896793004165       -4.17077314598557        0.00000000000215
H           -2.17058290997185       -2.68780990712343       -0.00000000000403
18
 energy: -27.005205523782 gnorm: 0.004917409185 xtb: 6.7.1pre (5071a88)
C            0.00128357974691        1.18439765027553       -0.00000000002156
C           -1.21411338383359        0.34751812627493       -0.00000000000786
C           -0.77798070013442       -0.99488711852140        0.00000000002404
C            0.69711410376207       -0.95749706329002        0.00000000000671
C            1.13385244527923        0.36836394866685        0.00000000000870
C           -2.30302282760854        1.19167457802926       -0.00000000005911
C           -1.80695152848432        2.51790038370109        0.00000000001103
C           -0.41361930868365        2.52124809677696       -0.00000000000311
C            1.14700717947996       -2.28297476062057        0.00000000000085
C            0.01781989433481       -3.09928683415952       -0.00000000003038
C           -1.16289038474941       -2.31785051967885        0.00000000005910
H            2.15764584797442        0.70138080439619        0.00000000001052
H           -3.34001344649886        0.91073391291008       -0.00000000006143
H           -2.42449625159644        3.39900721997961        0.00000000003097
H            0.21110873477377        3.39492965443433        0.00000000001888
H            2.16615701868541       -2.62185134928932       -0.00000000002041
H            0.03624796344092       -4.17514412132295       -0.00000000004568
H           -2.16676893588828       -2.70056260856221        0.00000000007872
18
 energy: -27.005235161821 gnorm: 0.001311346607 xtb: 6.7.1pre (5071a88)
C            0.00052711073321        1.18469306883606        0.00000000005940
C           -1.21723972049130        0.34744365777093        0.00000000005937
C           -0.78052443225777       -0.99651872125808       -0.00000000014867
C            0.69679009413444       -0.95824232337018       -0.00000000005418
C            1.13211459662126        0.36777334140141       -0.00000000004697
C           -2.30385920372417        1.19370382066992        0.00000000037256
C           -1.80688786442173        2.52208533378267       -0.00000000007872
C           -0.41393246611865        2.52210044257300        0.00000000004238
C            1.14765138522555       -2.28383521742956       -0.00000000002209
C            0.02062168135005       -3.10242942562347        0.00000000021511
C           -1.16222448965029       -2.31979781953822       -0.00000000041513
H            2.15636137232283        0.70065600109197       -0.00000000004832
H           -3.34304326529792        0.91996064937416        0.00000000041230
H           -2.42464801878552        3.40305054544228       -0.00000000019810
H            0.21375920862592        3.39406037766638       -0.00000000009000
H            2.16809281631362       -2.62018790084147        0.00000000011186
H            0.03863079521096       -4.17821266337609        0.00000000034706
H           -2.16380959979048       -2.70920316717171       -0.00000000051784
18
 energy: -27.005237821322 gnorm: 0.000527578015 xtb: 6.7.1pre (5071a88)
C            0.00047172198762        1.18488466113896       -0.00000000024685
C           -1.21711213103897        0.34750136716344       -0.00000000038309
C           -0.78040496191917       -0.99651574417236        0.00000000107931
C            0.69684676613565       -0.95831790012994        0.00000000053121
C            1.13202306081994        0.36780785115646        0.00000000036969
C           -2.30361045061984        1.19318369029437       -0.00000000246176
C           -1.80698302197221        2.52228737902946        0.00000000062519
C           -0.41411825474590        2.52232254774931       -0.00000000042615
C            1.14757957759725       -2.28402942424786        0.00000000033470
C            0.02070990724289       -3.10268572343321       -0.00000000167264
C           -1.16231595072154       -2.31931437141686        0.00000000299786
H            2.15637624198752        0.70063540942820        0.00000000027423
H           -3.34332270752520        0.92188326938195       -0.00000000282720
H           -2.42571183443408        3.40235215220920        0.00000000133768
H            0.21490807577095        3.39356094756940        0.00000000030782
H            2.16856788486054       -2.61915851770467       -0.00000000060638
H            0.03740863398883       -4.17835000473485       -0.00000000281163
H           -2.16293255741429       -2.71094758928102        0.00000000357799
18
 energy: -27.005238121454 gnorm: 0.000085247361 xtb: 6.7.1pre (5071a88)
C            0.00048519174172        1.18483587398708        0.00000000130176
C           -1.21670203661100        0.34753557726778        0.00000000194859
C           -0.78005639704957       -0.99633279603366       -0.00000000817476
C            0.69681947852418       -0.95825764667431       -0.00000000490427
C            1.13215610316414        0.36786347508100       -0.00000000315393
C           -2.30350008190631        1.19280104993052        0.00000001603383
C           -1.80691348865439        2.52184112075346       -0.00000000472338
C           -0.41411727497786        2.52228649762417        0.00000000423756
C            1.14752471849856       -2.28398247547383       -0.00000000392637
C            0.02048011208405       -3.10229658048545        0.00000001329847
C           -1.16246159433203       -2.31896991008525       -0.00000002139901
H            2.15645579786684        0.70067879632513       -0.00000000185915
H           -3.34315784194520        0.92161044354108        0.00000001867167
H           -2.42602097002501        3.40164139877198       -0.00000000888080
H            0.21507453140406        3.39333980807701        0.00000000046905
H            2.16853965944274       -2.61884654816009        0.00000000276518
H            0.03673579691982       -4.17797549747779        0.00000002283588
H           -2.16296170414474       -2.71067258696884       -0.00000002454031
