34
 energy: -51.593960200822 gnorm: 0.000347277341 xtb: 6.7.1pre (5071a88)
C            4.92688389950012        2.81592661136185       -0.01205866275925
C            4.90131972520749        1.44636354387754       -0.00545412816080
C           -3.66327064457721        0.67585561030132       -0.00617542581151
C           -3.67216874764553       -0.70349573879494        0.00081566854249
C           -2.46715833942855        1.36808565982294       -0.00223838290021
C           -2.46734019077347       -1.43430594959976        0.01218617778097
C           -2.45803404175297       -2.84076391106188        0.02063287795505
C           -1.23836970160508        0.68423723887121        0.00749053825337
C           -1.23120776660585       -0.73653881442646        0.01506688844194
C           -1.26288785488613       -3.52145665074734        0.03258915004517
C           -0.01823679267521        1.37397274886479        0.00848606066548
C           -0.00198197424170       -1.44019941991266        0.02473203440424
C           -0.05529275372359       -2.84104751570283        0.03438796866713
C            1.21087270765222        0.72109150044628        0.01426030672746
C            1.23618591405662       -0.70175247019684        0.02244356902105
C            2.52183897776045        2.85960265199270        0.00479320224228
C            2.45788239464504        1.45776864138974        0.00898326097034
C            2.48619140419786       -1.35686100083613        0.02512042966274
C            3.72463074904954        3.52422499921221       -0.00521564929670
C            3.68185996618267        0.74716473226383        0.00626783366285
C            3.66031754314429       -0.66879249471406        0.01591906322193
H            5.86655728486288        3.34834999363954       -0.02213835710385
H            5.82170427796166        0.87946521658467       -0.00979581048305
H           -4.59720623768298        1.21944942773537       -0.01503505045679
H           -4.60727115428881       -1.24426203097813       -0.00227620176887
H           -2.46328305270315        2.44844637115093       -0.00730268294754
H           -3.39753381301938       -3.37404340996987        0.01832923146207
H           -1.25878966929359       -4.60211512227331        0.04035878332919
H           -0.06642694137859        2.45121162459386        0.00216223783212
H            0.85105586000887       -3.42404766044461        0.04349824512927
H            1.61682869141965        3.44594247590954        0.00987473784497
H            2.52462970882703       -2.43426882156375        0.03307453202657
H            3.74069868775688        4.60439077913069       -0.00835698194609
H            4.60283188404853       -1.19759881592649        0.01603553574600
