34
 energy: -51.483362817417 gnorm: 0.000155686350 xtb: 6.7.1pre (5071a88)
C            4.72524351978359        0.13687047441807       -0.00658193561082
C           -0.95060950282457        3.62878278226651       -0.00711404795154
C           -3.01365939840750        2.21124352191832        0.01015867642824
C            0.02770894097912        2.68708900740122       -0.00898849497527
C           -2.58289060058796        0.83167747201165        0.00665189796767
C           -3.69360857933076       -0.06187075721283        0.00945118804653
C           -0.06726544449837        1.27712792664331       -0.00169281476943
C           -1.23892819281139        0.42919838024269        0.00194627397874
C           -3.80428594625709       -1.42997010640485        0.00746196257387
C           -0.76044373214382       -0.94481762469625        0.00098182491520
C           -1.44512366213379       -2.15353518071335        0.00094717465863
C            1.09027105086501        0.46140021780535       -0.00177699697515
C            0.67112057610234       -0.90247819625192       -0.00117796086685
C            3.27395938957811        1.88664269499641        0.00062859436859
C            2.47812325754709        0.73941908531322       -0.00243834420391
C            1.58083203469742       -1.95622562523018       -0.00342385068985
C            4.64017978804414        1.49952912032355       -0.00233436562941
C            3.38724663932817       -0.38341671645611       -0.00594731583622
C            2.94472297453040       -1.69024514016055       -0.00632726647618
C           -2.80134155653079       -2.39674975111926        0.00326338320188
C           -2.34390180190569        3.38910155219210        0.00411155548511
H            5.61739840636102       -0.46133519320848       -0.00951709769264
H           -0.64809765424419        4.66716173704111       -0.01388856581018
H           -4.09222017558961        2.31740343139274        0.01791728794147
H            1.04125937451764        3.05350090781394       -0.01795521812033
H           -4.65202411646003        0.44428797856635        0.01342607193329
H           -4.81891710547464       -1.81095356579925        0.01007454122520
H           -0.81402911961972       -3.03297189311928       -0.00143489576261
H            2.96315422782674        2.91517131681642        0.00619067537382
H            1.24409350446932       -2.98231890702887       -0.00309862400426
H            5.46405890110453        2.19097643768689       -0.00118622039010
H            3.65484123191310       -2.50541752411848       -0.00831415327469
H           -3.11923325003325       -3.43030912256498        0.00234112254565
H           -2.96052397879461        4.28044125923458        0.00764593839558
