34
 energy: -51.593962184811 gnorm: 0.000281438685 xtb: 6.7.1pre (5071a88)
C            4.92703579676524        2.81564020888256       -0.00357674179218
C            4.90135769943949        1.44615614322403       -0.01793421698247
C           -3.66343610337977        0.67544006572541        0.03432770109387
C           -3.67221382265245       -0.70372405113898        0.01511831161354
C           -2.46731048852674        1.36785579367240        0.03523493277695
C           -2.46723981354913       -1.43417870435654       -0.00253525700321
C           -2.45786034386823       -2.84057557386648       -0.01994070445879
C           -1.23851852975512        0.68437527002276        0.01684480242463
C           -1.23126460195650       -0.73629635929198       -0.00175249952576
C           -1.26272535672420       -3.52120860510680       -0.03431365502895
C           -0.01833713519252        1.37412749159798        0.01693295413438
C           -0.00203381592273       -1.43988852641721       -0.01836500125960
C           -0.05525327914257       -2.84055229047221       -0.03337033778068
C            1.21075034527099        0.72130569832110       -0.00136384442359
C            1.23609804217359       -0.70141295248410       -0.01886015735494
C            2.52201505571380        2.85957209712161        0.01124203095230
C            2.45789380413986        1.45785193055917       -0.00236946425770
C            2.48599207229284       -1.35665660118430       -0.03633727405272
C            3.72490721425024        3.52398505426374        0.01067565932106
C            3.68170289220394        0.74720384395501       -0.01816336574338
C            3.66011092882225       -0.66874743835653       -0.03525877310298
H            5.86679578323792        3.34799618061977       -0.00332765400502
H            5.82148047899179        0.87890724271825       -0.02925600497209
H           -4.59740108345041        1.21899305755017        0.04827853127340
H           -4.60716248297371       -1.24485627561597        0.01400950885334
H           -2.46388190666561        2.44814661379617        0.04993048084419
H           -3.39718361747069       -3.37387984266066       -0.02075813246193
H           -1.25836654446026       -4.60183309946319       -0.04636963683650
H           -0.06625894099989        2.45127109368464        0.03223965270782
H            0.85108729905613       -3.42373816256446       -0.04410468567146
H            1.61712269467586        3.44595375518226        0.02218453856368
H            2.52402048978067       -2.43397472450355       -0.05099259908500
H            3.74127633049804        4.60414876079401        0.02163480444000
H            4.60263093937788       -1.19740709420810       -0.04802690320020
