34
 energy: -51.553330119785 gnorm: 0.000307031290 xtb: 6.7.1pre (5071a88)
C            4.97763773142953        2.75906647955334       -0.01546422213019
C            4.91286033965182        1.38954355650202       -0.01389145126476
C           -3.75582033878087        1.17027536294306        0.00299729433470
C           -3.68294133668563       -1.34369189768827        0.00602980844514
C           -2.45142631927332        1.57119478262876        0.00393073818937
C           -2.31399174331818       -1.58606085809419        0.00740559032753
C           -1.69872003060656       -2.86985305482782        0.00949842997564
C           -1.25718644181806        0.78439969548521        0.00456734915485
C           -1.24025954359035       -0.61719223775821        0.00585346675217
C           -0.01745736244890        1.44014527137576        0.00344260969362
C           -0.02641009491251       -1.32486035694494        0.00644970033997
C           -0.34053834239428       -2.72515017473603        0.00907314721851
C            1.20845743813943        0.77041278472788        0.00209523629962
C            1.21509493961120       -0.65579258552475        0.00352326969154
C            2.57650452810237        2.87006391143115       -0.00287121614391
C            2.47304632503283        1.47018836517482       -0.00217576770855
C            2.44328998407105       -1.35802597361156        0.00092231324800
C            3.79697677109440        3.50134145668627       -0.00939406515781
C            3.67693506418243        0.72302942601970       -0.00685174707799
C            3.62817372263886       -0.69749386801622       -0.00457063092614
C           -4.31993932776844       -0.12278514510210        0.00356425548765
H            5.93256123951584        3.26366114581223       -0.02178085912118
H            5.81823217891350        0.79887188132881       -0.01849310710269
H           -4.48731341697027        1.97110297505914        0.00165581333716
H           -4.31655557852589       -2.22371449750374        0.00616312738008
H           -2.28197749145848        2.64205456497906        0.00384855158329
H           -2.24031868051722       -3.79856627585679        0.01118646773439
H           -0.03462471263715        2.51867712686836        0.00287351789873
H            0.37738132528732       -3.52461478255050        0.01069464959303
H            1.68645151076268        3.47914724072968        0.00222792917957
H            2.42022386742055       -2.43710428849740        0.00275029907883
H            3.84354413560603        4.58071819707200       -0.00969187459930
H            4.56272957673443       -1.24059736922397       -0.00728545286207
H           -5.40260991648804       -0.14754085844096        0.00171682915121
