34
 energy: -51.458261611664 gnorm: 0.000226591125 xtb: 6.7.1pre (5071a88)
C            4.88636093747834        3.82453953904454       -0.33112369081093
C            4.78374839124433        2.46169197502484       -0.35763071487581
C           -3.49431318589943        0.56608914186003       -0.34488160839561
C           -2.57535946618837        1.56963988099677       -0.47854590059166
C           -2.79090431598287       -0.65272410309907       -0.03948304328134
C           -2.89233526190008       -2.07487081452194        0.17564201226577
C           -1.24370347144640        1.03982281967545       -0.24839090427579
C           -1.45285802733178       -0.33573341405271        0.02171263933066
C           -0.01826729973659        1.64509979971172       -0.23889352622512
C           -0.66468898141175       -1.49813773333472        0.22082423165159
C           -1.63212109486278       -2.57779426362096        0.32974828500109
C            1.25073629396212        1.04782165013836        0.00798961818073
C            1.56252390579114       -0.36225793626105        0.05205774746913
C            1.99497806271464        3.28790510328490        0.64536403927927
C            2.33176798211356        1.99285253784946        0.13634374866615
C            2.92538548825396       -0.70680904293178       -0.04564482836301
C            2.68528073199915        4.47696841075664        0.61988803244094
C            3.66451695780337        1.59529950798425       -0.12975353250070
C            3.91952281136036        0.21792488363090       -0.21916764222343
C            0.69763028406097       -1.48973032636912        0.18916789666404
C            3.94477110629817        4.76179788937596        0.10412762856821
H            5.84213390336566        4.23233847382820       -0.63928417741063
H            5.67839957763639        1.92944165535505       -0.65848052103705
H           -4.55943862024780        0.66900090426616       -0.45831797308036
H           -2.78689421623259        2.60003999136673       -0.70147939774528
H           -3.80471793413012       -2.64504274740826        0.20036544771479
H            0.00198201080802        2.70002226962042       -0.48584289649253
H           -1.37358682995449       -3.60667436185866        0.50396498052386
H            1.04124059703728        3.33118729123086        1.15446565238475
H            3.19056132538624       -1.75420138282103       -0.02599620586587
H            2.16169185067234        5.32153310945949        1.05410453065832
H            4.93484578940717       -0.11517502087699       -0.37770384140394
H            1.20749973329269       -2.44426833346967        0.26143888918203
H            4.25204096463930        5.79809264616423        0.10341502459824
