34
 energy: -51.522648463260 gnorm: 0.000390247622 xtb: 6.7.1pre (5071a88)
C            4.53882507877724        2.68951105589643       -0.01426490920704
C           -3.71536263401333        1.60932398954024        0.00276800725720
C           -4.06381517968842        0.28384496147977        0.00409018647256
C           -2.37615678935115        1.95590805173791        0.00340091699324
C           -3.07312910470939       -0.71818550706991        0.00602048040968
C           -3.49016432168741       -2.06471844434702        0.00843595074958
C           -1.33993348131897        1.00790295213192        0.00430943711043
C           -1.68564183866718       -0.37962286593302        0.00538660503184
C           -2.57180408131591       -3.08177022481330        0.00996384119271
C           -0.03741521923667        1.58000677000202        0.00354892769477
C           -0.74170765149704       -1.45370738950934        0.00606577640828
C           -1.22315592292144       -2.77294040784928        0.00851304032656
C            1.24753281821000        1.08671205609152       -0.00004951132779
C            1.59112363929243       -0.32901914781233       -0.00030876111601
C            2.36877228168977        3.40138925693981       -0.00530502348221
C            2.32778699795959        2.01210547408133       -0.00403141351897
C            2.96311172720581       -0.70502725979419       -0.00450522005424
C            3.71482586774871        3.80729217283419       -0.01216200449683
C            3.71675520365454        1.55750526430874       -0.00969072947613
C            3.99715722681007        0.19681632263192       -0.00957212386616
C            0.67754199971919       -1.36059676641252        0.00370402901991
H            5.61306763833771        2.68807868307118       -0.01920432642293
H           -4.47237944765227        2.37940688550382        0.00124890802269
H           -5.10118005806982       -0.01615239581616        0.00391585523953
H           -2.11332687712568        3.00375006693178        0.00269041756281
H           -4.54925244597113       -2.27572897242092        0.00921510985531
H           -2.88940728712408       -4.11377154944499        0.01197760846073
H           -0.07191582304391        2.66243876968905        0.00453907211438
H           -0.50736140562938       -3.58228648984767        0.00910520937202
H            1.53559871358165        4.08033629826371       -0.00211134928229
H            3.18846234513494       -1.76249935508602       -0.00410309119109
H            4.04726593540538        4.83056908089053       -0.01470456382314
H            5.02171096907673       -0.14862370749142       -0.01296470708855
H            1.14507112641949       -2.34073762837784        0.00407835505917
