34
 energy: -51.506413174198 gnorm: 0.000223990480 xtb: 6.7.1pre (5071a88)
C            4.84360197348559        0.89865939428576       -0.01342390582934
C           -1.22215745225024        3.54722039689996       -0.00152581071526
C           -3.17802125658564        1.99022530360861        0.00649073296316
C           -0.11754232449409        2.72992913756460       -0.00316453262802
C           -2.56023453451558        0.69526539097248        0.00636113538188
C           -3.41280204758754       -0.41877211652950        0.00832182541948
C           -0.03266913712630        1.33463175283599        0.00125493188202
C           -1.17324797556741        0.44915242713978        0.00477195998308
C           -2.92975599903322       -1.71412277294343        0.00879317064722
C           -0.69358818003293       -0.87569194221310        0.00539337270432
C           -1.56608013087074       -1.95590401733862        0.00743365258161
C            1.17323238390945        0.52734807647692        0.00041376152243
C            0.75779450440422       -0.84805226165860        0.00229602326815
C            3.03892128772707        2.26333165346874        0.00075133721699
C            2.51354583052955        0.96690680833865       -0.00172057013627
C            1.46818483969370       -2.03549606906818        0.00161032367762
C            4.43231292481211        2.21920574397290       -0.00660415856849
C            3.71033557712029        0.07475139518867       -0.00937568867449
C            3.82690520093336       -1.30370652600969       -0.01058338927844
C            2.83365593900085       -2.26227657303546       -0.00436721678151
C           -2.59528922677913        3.21577176295599        0.00357956229148
H            5.85885786752392        0.54661337994615       -0.01951378593636
H           -1.01664545295677        4.61058594626855       -0.00518672097612
H           -4.26131158715527        1.96587407617065        0.00920202548871
H            0.81599113545971        3.26185636063293       -0.00911624138693
H           -4.48050424925358       -0.25316044329868        0.00927658459273
H           -3.62296321340738       -2.54241316628697        0.00994268750460
H           -1.20476136228298       -2.97283229134453        0.00775124951601
H            2.51833422004245        3.19866391401545        0.00868637783030
H            0.85846450115770       -2.93054104835723        0.00551124644608
H            5.07437099793896        3.08283775634426       -0.00683230274471
H            4.84792567267632       -1.67050480740028       -0.01599734413711
H            3.15183183806065       -3.29695480498855       -0.00452221480211
H           -3.26612256457707        4.06706816338562        0.00409192167731
