34
 energy: -51.542625576363 gnorm: 0.000221056653 xtb: 6.7.1pre (5071a88)
C            5.32071708292571        1.42109335011159       -0.01462159456004
C            4.77334063339762        0.14743077353232       -0.01325236295390
C           -3.69373762487196        1.35361429021425        0.00055549687790
C           -3.80744122925287       -1.12419064562901        0.00587402772433
C           -2.35445394471948        1.56843912908719        0.00246653871750
C           -2.43350455490293       -1.56837160575709        0.00675406047780
C           -2.31276205872310       -2.95930077478182        0.00909383784930
C           -1.23324932844274        0.68587877690084        0.00432390017559
C           -1.25125212303266       -0.76102056267152        0.00489313181705
C           -1.08929679533532       -3.60540996210651        0.00912623723127
C            0.00061923419374        1.36769822543035        0.00450876507109
C           -0.00133922832855       -1.45124040705317        0.00407220292381
C            0.05580710913208       -2.85134387472785        0.00630872926971
C            1.19833273581102        0.70933683173970        0.00235735915405
C            1.22851628564155       -0.72078660586192        0.00086899253768
C            3.12616882333882        2.43684826557369       -0.00255756047631
C            2.56656805133347        1.17549594564811       -0.00160769106095
C            2.54931190749773       -1.13881149958843       -0.00439623914768
C            4.51169637080556        2.54974764591061       -0.00906498279486
C            3.39119773100104        0.01654537554089       -0.00655451133135
C           -4.36330798181022        0.10575006433171        0.00233969735028
H            6.39484119016389        1.54002195639507       -0.02008724384969
H            5.41019746382916       -0.72569556677188       -0.01746661338953
H           -4.33133424622674        2.22819896889546       -0.00236076871167
H           -4.51158363441229       -1.94839093646473        0.00776334431501
H           -2.06563981118400        2.61395792435503        0.00154461801453
H           -3.21313068047395       -3.55673376961078        0.01095762021981
H           -1.04427006386731       -4.68423909434899        0.01139755359949
H           -0.00877823838296        2.44900443096194        0.00526056581976
H            1.02195494107120       -3.32982134539128        0.00617956878341
H            2.50592149899209        3.32181357482345        0.00141786602786
H            2.91624675564545       -2.14881468112454       -0.00724249376394
H            4.96691395735969        3.52956962028610       -0.01015528873230
H           -5.44506022817274        0.15611618215123        0.00130323681498
