34
 energy: -51.524897724633 gnorm: 0.000224571390 xtb: 6.7.1pre (5071a88)
C            4.72233147215162        1.69417515391821       -0.01224845731429
C           -3.69926067450759        1.36432097949747       -0.00062731785244
C           -3.82670356615717       -1.11189009179063        0.00529584625046
C           -2.36618217123366        1.56734343676226        0.00090534611571
C           -2.45434634604613       -1.56764860788839        0.00610883842239
C           -2.35473857737188       -2.96039893303633        0.00871007468550
C           -1.24169997969348        0.66855406893828        0.00289026453229
C           -1.26371392161741       -0.77949658117611        0.00417270858927
C           -1.13671711985004       -3.60886467388006        0.00932365076112
C           -0.02318410052706        1.32094960516141        0.00279325077050
C           -0.00836496381368       -1.45998934488511        0.00409353622038
C            0.01485134894136       -2.86363302254887        0.00702495017882
C            1.21788785546133        0.68114272784750        0.00101353464650
C            1.25257265046877       -0.74402789239045        0.00080870019567
C            2.72503808370137        2.77523074754131       -0.00386427455367
C            2.43265722271313        1.39935982716047       -0.00256329460300
C            2.49903366411450       -1.37736700091132       -0.00324444549926
C            4.12539451421266        2.93150119476317       -0.00981641259582
C            3.67974701222115        0.70631109945437       -0.00750278529126
C            3.69827324293825       -0.67194287763063       -0.00746425271435
C           -4.37822249644906        0.11644482335209        0.00167267800145
H            5.77576033071575        1.48309650505545       -0.01715903270699
H           -4.33332497370456        2.24163784074974       -0.00375794351745
H           -4.53416072535062       -1.93326823362776        0.00767366186107
H           -2.06139668191692        2.60796669285584       -0.00051463070780
H           -3.26031098661811       -3.54947573901949        0.01045263865432
H           -1.09280896255390       -4.68777126596615        0.01192604349477
H           -0.01753983898423        2.40112491123834        0.00282044561211
H            0.95557219873849       -3.38630225223022        0.00788440373052
H            2.01621333155383        3.58339795498376       -0.00064605862156
H            2.57124625625299       -2.45271430700446       -0.00387213879200
H            4.63503187628921        3.87845713771675       -0.01229385524897
H            4.63445380487089       -1.21293778206089       -0.01090534277829
H           -5.45944877894987        0.17276389905053        0.00090967007430
