34
 energy: -51.484316034216 gnorm: 0.000351458742 xtb: 6.7.1pre (5071a88)
C            5.75323339545861        0.80078321606208        0.25075911302863
C            4.90943257317657       -0.28064809087746        0.23959283761760
C           -1.23460824400120        3.42962746986019        0.31179965341983
C           -3.16428329908899        1.80821256949159       -0.00094516682520
C           -0.04851933135957        2.71459116726052        0.27273005026226
C           -2.48483824363958        0.60495880285166       -0.05819252920482
C           -2.95450662154567       -0.73355875822577       -0.13142014166500
C            0.07113649435457        1.34220809357906        0.03095041077964
C           -1.04909312575839        0.50033570417008       -0.04623780138019
C           -0.68823511690196       -0.84803439570937       -0.09233110353745
C           -1.88200429481795       -1.60845292527589       -0.14059686446497
C            1.22503456575280        0.45588218891553       -0.03039040674275
C            0.73692598318384       -0.90359781956711       -0.04391923240313
C            3.00966193273266        2.04159753388735       -0.47269920257989
C            2.59588752360194        0.72828669889801       -0.11079653297907
C            1.62498213772421       -1.95960596866280       -0.00614252504746
C            4.24305918109594        2.64910268547190       -0.44586693815977
C            3.50073332774606       -0.38547136904081        0.06074500130597
C            2.97794852670103       -1.68461312928861        0.09189775215867
C           -2.57540257650714        3.05674255300678        0.15244470819129
C            5.47281793400555        2.13193248322004       -0.05625593311473
H            6.78873414603139        0.58557020009733        0.48734259677485
H            5.38621908961181       -1.23345327870121        0.44160196121485
H           -1.10406132721280        4.49068058217072        0.50077997038356
H           -4.24639591345140        1.78008832842802       -0.05497497271614
H            0.84752768550387        3.28227619658239        0.48470045462267
H           -3.99175095558030       -1.01572112550806       -0.15976114207360
H           -1.95181088117553       -2.68137934110642       -0.17604769547670
H            2.20889651904245        2.65660470496131       -0.85813664757615
H            1.27118618621217       -2.97962067059276       -0.02204973996539
H            4.25463307399966        3.68690905038255       -0.76053275644681
H            3.67032562454575       -2.50969246677723        0.18433416432179
H           -3.27103308454071        3.88729593782986        0.19546426514182
H            6.30716711510055        2.82002317220730       -0.03784560686396
