32
 energy: -48.919384167518 gnorm: 0.000215428146 xtb: 6.7.1pre (5071a88)
C           -3.63888430100875        1.38109348015357       -0.65156979230003
C           -3.93201306311017        0.05820987925972       -0.34162444854602
C           -2.35717774106348        1.88290860753846       -0.52722637366030
C           -2.88252834201703       -0.76005058787050        0.02472581781102
C           -2.82775510671766       -2.17316073650581        0.34670998100484
C           -1.28206790601370        1.08948488869209       -0.08847127545629
C           -1.56842790376782       -0.25028401258544        0.10771429622506
C           -0.01850695523286        3.04260346248067        0.55631616245026
C            0.02595541467370        1.71265116461061        0.17144859919230
C           -0.68753714012333       -1.36703048710769        0.37627050413295
C           -1.54479743706678       -2.52466472382143        0.56379974953446
C            1.11696444355834        3.84637494991307        0.63491049680010
C            1.30239414177493        1.08612309668965        0.01144606654160
C            1.56860336817170       -0.32256710996185       -0.07598942575768
C            2.32350811450948        3.32184154359236        0.27733586838966
C            2.44253037315081        1.94956315735068       -0.02370333412318
C            2.85690616781333       -0.75443656989026       -0.37189803070994
C            3.72451232026805        1.45099027783120       -0.33704181105937
C            3.92434752465896        0.11787390061812       -0.55267489351779
C            0.65219676909200       -1.39125166944053        0.23251565774921
H           -4.42879997858587        2.03602116055514       -0.99040088425901
H           -4.94111243642245       -0.31942681367296       -0.41347880150197
H           -2.18241297324899        2.91282197261972       -0.79888261060984
H           -3.69042237033956       -2.81390019747250        0.38669957509893
H           -0.97153903566685        3.48601778881559        0.79959107090815
H           -1.17325399648284       -3.50509594124482        0.80161442582153
H            1.02359542888049        4.87920427361661        0.93597524786878
H            3.21211648036705        3.93518880243981        0.24766930128841
H            3.03971637870421       -1.81688956917955       -0.45000618422957
H            4.54731836960127        2.14930589133981       -0.38560240027495
H            4.90041120766061       -0.26714504429101       -0.80742535608404
H            1.12887018398334       -2.35980483507178        0.34125280127281
